      -----------------------------------------------------------      
     |                   =====================                   |     
     |                           x T B                           |     
     |                   =====================                   |     
     |                         S. Grimme                         |     
     |          Mulliken Center for Theoretical Chemistry        |     
     |                    University of Bonn                     |     
      -----------------------------------------------------------      

   * xtb version 6.5.1 (b24c23e) compiled by 'conda@728c89f4b128' on 2022-07-12

   xtb is free software: you can redistribute it and/or modify it under
   the terms of the GNU Lesser General Public License as published by
   the Free Software Foundation, either version 3 of the License, or
   (at your option) any later version.
   
   xtb is distributed in the hope that it will be useful,
   but WITHOUT ANY WARRANTY; without even the implied warranty of
   MERCHANTABILITY or FITNESS FOR A PARTICULAR PURPOSE.  See the
   GNU Lesser General Public License for more details.
   
   Cite this work as:
   * C. Bannwarth, E. Caldeweyher, S. Ehlert, A. Hansen, P. Pracht,
     J. Seibert, S. Spicher, S. Grimme, WIREs Comput. Mol. Sci., 2020, 11,
     e01493. DOI: 10.1002/wcms.1493
   
   for GFN2-xTB:
   * C. Bannwarth, S. Ehlert and S. Grimme., J. Chem. Theory Comput., 2019,
     15, 1652-1671. DOI: 10.1021/acs.jctc.8b01176
   for GFN1-xTB:
   * S. Grimme, C. Bannwarth, P. Shushkov, J. Chem. Theory Comput., 2017,
     13, 1989-2009. DOI: 10.1021/acs.jctc.7b00118
   for GFN0-xTB:
   * P. Pracht, E. Caldeweyher, S. Ehlert, S. Grimme, ChemRxiv, 2019, preprint.
     DOI: 10.26434/chemrxiv.8326202.v1
   for GFN-FF:
   * S. Spicher and S. Grimme, Angew. Chem. Int. Ed., 2020, 59, 15665-15673.
     DOI: 10.1002/anie.202004239
   
   for ALPB and GBSA implicit solvation:
   * S. Ehlert, M. Stahn, S. Spicher, S. Grimme, J. Chem. Theory Comput.,
     2021, 17, 4250-4261. DOI: 10.1021/acs.jctc.1c00471
   
   for DFT-D4:
   * E. Caldeweyher, C. Bannwarth and S. Grimme, J. Chem. Phys., 2017,
     147, 034112. DOI: 10.1063/1.4993215
   * E. Caldeweyher, S. Ehlert, A. Hansen, H. Neugebauer, S. Spicher,
     C. Bannwarth and S. Grimme, J. Chem. Phys., 2019, 150, 154122.
     DOI: 10.1063/1.5090222
   * E. Caldeweyher, J.-M. Mewes, S. Ehlert and S. Grimme, Phys. Chem. Chem. Phys.
     2020, 22, 8499-8512. DOI: 10.1039/D0CP00502A
   
   for sTDA-xTB:
   * S. Grimme and C. Bannwarth, J. Chem. Phys., 2016, 145, 054103.
     DOI: 10.1063/1.4959605
   
   in the mass-spec context:
   * V. Asgeirsson, C. Bauer and S. Grimme, Chem. Sci., 2017, 8, 4879.
     DOI: 10.1039/c7sc00601b
   * J. Koopman and S. Grimme, ACS Omega 2019, 4, 12, 15120-15133.
     DOI: 10.1021/acsomega.9b02011
   
   for metadynamics refer to:
   * S. Grimme, J. Chem. Theory Comput., 2019, 155, 2847-2862
     DOI: 10.1021/acs.jctc.9b00143
   
   for SPH calculations refer to:
   * S. Spicher and S. Grimme, J. Chem. Theory Comput., 2021, 17, 1701-1714
     DOI: 10.1021/acs.jctc.0c01306
   
   with help from (in alphabetical order)
   P. Atkinson, C. Bannwarth, F. Bohle, G. Brandenburg, E. Caldeweyher
   M. Checinski, S. Dohm, S. Ehlert, S. Ehrlich, I. Gerasimov, C. Hölzer
   A. Katbashev, J. Koopman, C. Lavigne, S. Lehtola, F. März, M. Müller,
   F. Musil, H. Neugebauer, J. Pisarek, C. Plett, P. Pracht, F. Pultar,
   J. Seibert, P. Shushkov, S. Spicher, M. Stahn, M. Steiner, T. Strunk,
   J. Stückrath, T. Rose, and J. Unsleber
   
 * started run on 2023/02/22 at 16:21:57.687     

           -------------------------------------------------
          |                Calculation Setup                |
           -------------------------------------------------

          program call               : xtb prELN032036-072_g0.xyz.xyz --gfn2 --opt normal --cycles 50 -P 1
          coordinate file            : prELN032036-072_g0.xyz.xyz
          omp threads                :                     1

   ID    Z sym.   atoms
    1    8 O      1, 4-6, 10, 18
    2    6 C      2, 3, 8, 9, 11-14, 16, 17, 19-22
    3    7 N      7, 15
    4    1 H      23-46

molecular fragmentation (1/2 indicates fragments):
1111112222222222222222222222222222222222222222
# atoms in fragment 1/2:     6    40
 fragment masses (1/2) :       88.02      228.33
CMA distance (Bohr)    :   8.574
constraining FC (au)   :  0.0500
########################################################################
[ERROR] Program stopped due to fatal error
-22- Some atoms in the start geometry are *very* close
-21- XTB REFUSES TO CONTINUE WITH THIS CALCULATION!
-20- Found *very* short distance of  0.000E+00 for H34-H46
-19- Found *very* short distance of  0.000E+00 for H33-H45
-18- Found *very* short distance of  0.000E+00 for H32-H44
-17- Found *very* short distance of  0.000E+00 for H31-H43
-16- Found *very* short distance of  0.000E+00 for H30-H42
-15- Found *very* short distance of  0.000E+00 for H29-H41
-14- Found *very* short distance of  0.000E+00 for H28-H40
-13- Found *very* short distance of  0.000E+00 for H27-H39
-12- Found *very* short distance of  0.000E+00 for H26-H38
-11- Found *very* short distance of  0.000E+00 for H25-H37
-10- Found *very* short distance of  0.000E+00 for H24-H36
-9- Found *very* short distance of  0.000E+00 for H23-H35
-8- Found *very* short distance of  0.000E+00 for C14-C22
-7- Found *very* short distance of  0.000E+00 for C13-C21
-6- Found *very* short distance of  0.000E+00 for C12-C20
-5- Found *very* short distance of  0.000E+00 for C11-C19
-4- Found *very* short distance of  0.000E+00 for O10-O18
-3- Found *very* short distance of  0.000E+00 for C9-C17
-2- Found *very* short distance of  0.000E+00 for C8-C16
-1- Found *very* short distance of  0.000E+00 for N7-N15
########################################################################
